VARIABLES = "X" "temp" "u" "rho" "H2" "O2" "H2O" "H" "O" "OH" "HO2" "H2O2" "N2"
 ZONE I=13 FORMAT=POINT
0                         750                       707.194926098685          0.00077388749437862       0.187713502564526         0.170648638695024         1.722270434425e-16        -3.5195152374117e-14      3.85273664965406e-14      5.05589785592725e-20      -5.32775566157107e-14     -7.8952075943784e-16      0.6416378587405           
1                         749.999999999542          707.194926095884          0.000773887494381694      0.187713502561694         0.170648638689028         1.67568145416315e-13      2.34491702979863e-15      3.36644062895612e-16      4.09115170691259e-17      6.40383766903768e-12      4.76219455326313e-14      0.641637858742657         
1.5                       749.999999999202          707.194926094379          0.00077388749438334       0.187713502560302         0.170648638686036         2.32052675180866e-13      2.33482414624946e-15      2.11293051154415e-16      3.15035412196002e-17      9.61306861454386e-12      8.39589168588691e-14      0.64163785874373          
2                         749.999999998918          707.194926092928          0.000773887494384937      0.187713502558901         0.170648638683033         2.96886807677815e-13      2.35202450185261e-15      2.12015798885274e-16      3.16741268665968e-17      1.28224929007955e-11      1.32420060620104e-13      0.641637858744812         
2.5                       749.999999998692          707.1949260915            0.000773887494386484      0.187713502557489         0.17064863868002          3.62219485242663e-13      2.36964954443453e-15      2.13598935291017e-16      3.19178548095864e-17      1.6032411500911e-11       1.92999520195234e-13      0.641637858745902         
2.75                      749.999999998594          707.194926090815          0.000773887494387245      0.18771350255678          0.17064863867851          3.95011348249369e-13      2.37846536910163e-15      2.1439358534914e-16       3.20403358300163e-17      1.76374954372793e-11      2.26323848980445e-13      0.641637858746449         
3                         749.99999999851           707.194926090119          0.000773887494387994      0.187713502556068         0.170648638676998         4.27928774567211e-13      2.3872829294025e-15       2.15188429792528e-16      3.21631899245208e-17      1.92427040628996e-11      2.6267632167893e-13       0.641637858746998         
3.125                     749.999999998472          707.194926089774          0.000773887494388383      0.187713502555691         0.170648638676246         4.44419055864101e-13      2.39169213973145e-15      2.15585891044439e-16      3.22247097295342e-17      2.00453396869403e-11      2.81612053355857e-13      0.641637858747289         
3.25                      749.999999998438          707.194926088647          0.000773887494389603      0.187713502554356         0.170648638675695         4.60940982680826e-13      2.39610177954878e-15      2.15983391017361e-16      3.22863218869593e-17      2.08480067365737e-11      3.01304040918208e-13      0.641637858748336         
3.3125                    749.999999998425          707.194926074531          0.000773887494405055      0.187713502536667         0.170648638679009         4.69219160612373e-13      2.39830678045428e-15      2.16182158835323e-16      3.23171523135064e-17      2.12493602781643e-11      3.11340333945937e-13      0.641637858762292         
3.375                     749.999999998621          707.194925736688          0.00077388749477476       0.187713502112561         0.170648638768038         4.78075246827297e-13      2.40051986950663e-15      2.16382757572927e-16      3.23482034095948e-17      2.16516561132861e-11      3.21566579607782e-13      0.641637859096947         
3.40625                   750.000000002759          707.194922630809          0.000773887498173532      0.18771349821079          0.170648639590713         4.95701298026126e-13      2.40269813990621e-15      2.16909286841681e-16      3.24051344471771e-17      2.18798519567439e-11      3.26751879954946e-13      0.641637862175792         
3.421875                  750.000000044503          707.194907582411          0.000773887514641024      0.187713479280492         0.170648643582739         6.58027427771268e-13      2.49101835868348e-15      2.5055950290877e-16       3.5700656606314e-17       2.23865387871282e-11      3.29625884749533e-13      0.641637877113392         
3.4375                    750.000000618776          707.194805491293          0.000773887626359719      0.187713350508897         0.170648670733447         3.25039971052444e-12      8.29050983884406e-15      2.24104179514831e-15      2.34577189382884e-16      3.0597298588529e-11       3.36935360290173e-13      0.641637978723461         
3.453125                  750.000008509429          707.194114787853          0.000773888382200453      0.187712474551452         0.170648855319562         4.49768682104248e-11      4.08283047884551e-13      1.17329251479004e-13      1.21689183364016e-14      1.90820280137746e-10      4.15140575866081e-13      0.641638669892236         
3.4609375                 750.000049913239          707.19228570361           0.00077389038378625       0.1877101305771           0.170649348515058         2.98994596975539e-10      1.11439051743304e-11      2.49743620700763e-12      2.74808928179409e-13      1.35002457392589e-09      8.54503377927508e-13      0.641640519244052         
3.46875                   750.000350022928          707.185281182876          0.000773898049005688      0.187700986289937         0.170651265911643         2.41476152046026e-09      2.29935817363839e-10      4.1722684630719e-11       4.88542691618847e-12      1.23627004651847e-08      4.73907335591045e-12      0.641647732739675         
3.47265625                750.001175970486          707.174489979726          0.000773909858387459      0.18768646583386          0.170654291616921         9.05133877470317e-09      1.97914432356577e-09      2.69021775699554e-10      3.46728561869207e-11      4.80114613449718e-08      1.7921225916435e-11       0.641659183185659         
3.474609375               750.002486586108          707.163651139858          0.000773921720266737      0.187671307338149         0.170657424171118         2.10274419599615e-08      6.71075094176263e-09      7.72566286661953e-10      1.06338610206784e-10      1.09717735572192e-07      4.52740799354444e-11      0.641671130110626         
3.4765625                 750.005683607123          707.145842744583          0.000773941210325225      0.187645155676468         0.170662766621765         5.41202149343099e-08      2.09821252289478e-08      2.21158486208708e-09      3.22558363965479e-10      2.73643853109856e-07      1.32956626809897e-10      0.641691726288474         
3.478515625               750.013342122303          707.117167266658          0.000773972595719415      0.187600039829702         0.170671837870342         1.45127705125104e-07      6.49544730834047e-08      6.17828893968827e-09      9.86992303973291e-10      6.88157546243562e-07      4.12709831875907e-10      0.64172721648224          
3.4794921875              750.021011260859          707.096719543655          0.000773994977364704      0.187565215096584         0.17067872976374          2.49788111885741e-07      1.21491101593607e-07      1.05840349918134e-08      1.84769052586803e-09      1.10348110683918e-06      7.74934403338002e-10      0.641754567172695         
3.48046875                750.033872658142          707.071173387368          0.00077402294145936       0.187517767766096         0.170687954424498         4.46756269975839e-07      2.24458711407539e-07      1.83284421643364e-08      3.57840760381282e-09      1.81138855757446e-06      1.52725703406245e-09      0.641791771771761         
3.4814453125              750.055281477105          707.040106626115          0.000774056951390447      0.187453125886941         0.170700263167148         8.1705646001965e-07       4.12932227017828e-07      3.16628875856426e-08      7.16960827509675e-09      2.98976605782663e-06      3.0728744047482e-09       0.641842349285795         
3.48193359375             750.071205329912          707.022582314051          0.000774076137208297      0.187412022831933         0.170707948011375         1.12376992910456e-06      5.6605803286728e-07       4.17557929983588e-08      1.04810882320495e-08      3.8489386182534e-06       4.43608704950245e-09      0.641874433717143         
3.482421875               750.092395795253          707.004180859232          0.000774096284339606      0.187363476517128         0.170716866312724         1.56604823897972e-06      7.75493229795314e-07      5.52609383002419e-08      1.56175896401106e-08      4.98597350850305e-06      6.50342395875771e-09      0.641912252273219         
3.48291015625             750.120547794301          706.985464486006          0.000774116777314907      0.187306141506188         0.170727194840448         2.20331918002211e-06      1.06193490230343e-06      7.32176777114517e-08      2.36790140140633e-08      6.48075480045328e-06      9.62361010376425e-09      0.641956811124179         
3.4833984375              750.157879341364          706.967310478538          0.000774136655539493      0.187238430409232         0.170739132472399         3.12040982658323e-06      1.45358622990588e-06      9.69451139654853e-08      3.64522010743919e-08      8.43000290817761e-06      1.43036167801844e-08      0.642009285418473         
3.483642578125            750.181071292232          706.958933493719          0.0007741458284662        0.18719998167466          0.170745789340738         3.7291018906867e-06       1.70326124307189e-06      1.11592278860464e-07      4.56785478725693e-08      9.61739833698023e-06      1.75007726799161e-08      0.642039004451532         
3.48388671875             750.208059889757          706.951444563255          0.000774154029117043      0.187158056788161         0.170752937970374         4.47129325115018e-06      1.9959965737432e-06       1.28536375108826e-07      5.75570991423211e-08      1.09850019357952e-05      2.14877565921035e-08      0.642071345368474         
3.484130859375            750.239456280648          706.945185991456          0.000774160882575135      0.187112342760147         0.170760605770421         5.37580600656233e-06      2.33910030284189e-06      1.4810697461769e-07       7.28749662597892e-08      1.25573848376802e-05      2.64508695461001e-08      0.642106531745474         
3.484375                  750.27596705816           706.94057088861           0.000774165936369105      0.187062498750688         0.170768820336476         6.47746976627415e-06      2.74109579902758e-06      1.70676706235008e-07      9.26557158375874e-08      1.43616769270476e-05      3.26165575275951e-08      0.642144804721364         
3.484619140625            750.31840837524           706.938095125946          0.000774168647392673      0.187008153678377         0.170777609257544         7.81829745459576e-06      3.21191531642337e-06      1.96666051244346e-07      1.18225665179274e-07      1.64276089507527e-05      4.02586556750205e-08      0.642186424091985         
3.48486328125             750.367721911382          706.938350984358          0.000774168366981543      0.186948903647214         0.17078699991898          9.44886521713351e-06      3.76312212137095e-06      2.26548570689715e-07      1.51296687840801e-07      1.87874764749468e-05      4.97064372223297e-08      0.642231669418297         
3.485107421875            750.424992866749          706.942042664876          0.000774164323969836      0.186884309183638         0.170797019315709         1.1429923865834e-05       4.40816488250552e-06      2.60856607761976e-07      1.94068387096731e-07      2.14759970882388e-05      6.13533697652202e-08      0.642280841136452         
3.4853515625              750.49147015091           706.950003823961          0.000774155605556361      0.18681389227711          0.170807693896641         1.38342706364936e-05      5.16266850923274e-06      3.00187519606157e-07      2.49352373792241e-07      2.45300255530811e-05      7.56663931280605e-08      0.642334261655264         
3.485595703125            750.568588918611          706.963217284141          0.000774141135829426      0.186737133219183         0.170819049469971         1.67489108290301e-05      6.04476617917902e-06      3.45210506155129e-07      3.20720809590205e-07      2.79880837755548e-05      9.3195420555399e-08       0.642392276423326         
3.48583984375             750.657995578785          706.982837043867          0.000774119651832038      0.18665346723801          0.170831111210622         2.02775390892399e-05      7.07547801386495e-06      3.96674117314501e-07      4.12680054410549e-07      3.1889653284113e-05       1.14582628914234e-07      0.64245525494418          
3.4859619140625           750.708013632087          706.995555186026          0.000774105725903452      0.186608813876932         0.170837416145998         2.23183338290009e-05      7.65569479726846e-06      4.25135062236344e-07      4.68495989098076e-07      3.40215789291728e-05      1.27001857300398e-07      0.642488753736605         
3.486083984375            750.76202444625           707.010549234897          0.000774089308599613      0.186562155024408         0.170843900194614         2.45727902590405e-05      8.28315724286768e-06      4.55621608302708e-07      5.32072506417133e-07      3.62883532683457e-05      1.40767663486255e-07      0.64252367201843          
3.4862060546875           750.820338117219          707.028051053475          0.000774070146385499      0.186513401982005         0.17085056398899          2.70623516866635e-05      8.96157605434074e-06      4.8826811478807e-07       6.04434570639542e-07      3.86963412266444e-05      1.56011372708952e-07      0.642560065045979         
3.486328125               750.883287511931          707.048311870224          0.000774047964630755      0.186462462301329         0.170857407749052         2.9810457000243e-05       9.69493834425726e-06      5.23217668175677e-07      6.8673498557762e-07       4.12519337081381e-05      1.72874656740925e-07      0.642597989793255         
3.4864501953125           750.951229756096          707.071603638189          0.000774022466147121      0.186409239646551         0.170864431246055         3.28427035912279e-05      1.0487526443765e-05       5.60622733307504e-07      7.80267723022418e-07      4.39615079436791e-05      1.91509957820823e-07      0.642637504969002         
3.486572265625            751.02454779243           707.098220462863          0.000773993329656928      0.186353633654437         0.170871633765067         3.61870201781551e-05      1.13439377936453e-05      6.00645873775922e-07      8.86482297832408e-07      4.68313826843728e-05      2.1208086440576e-07       0.642678671030804         
3.4866943359375           751.103652009009          707.128480096597          0.000773960208193785      0.186295539792129         0.170879014066004         3.9873849685963e-05       1.22691059706573e-05      6.43460551018182e-07      1.00699919167085e-06      4.98677680358664e-05      2.34762425485011e-07      0.642721550196007         
3.48681640625             751.188981936279          707.162725500527          0.000773922727437898      0.186234849212992         0.170886570343197         4.39363422243545e-05      1.32683229043463e-05      6.89252012525106e-07      1.14362631357072e-06      5.30767097518596e-05      2.59741388632988e-07      0.642766206449216         
3.4869384765625           751.281008010912          707.201326469855          0.000773880483989045      0.186171448610827         0.170894300183512         4.84105581613745e-05      1.43472623443258e-05      7.38218281129743e-07      1.29837646773915e-06      5.6464027894424e-05       2.87216346003333e-07      0.642812705546166         
3.487060546875            751.380233403295          707.244681322398          0.000773833043581823      0.186105220072888         0.17090220052301          5.33356811451054e-05      1.55120046398064e-05      7.90571258460687e-07      1.47348577972278e-06      6.00352498142244e-05      3.17397771033681e-07      0.642861115013694         
3.4871826171875           751.487195904985          707.293218643769          0.000773779939248533      0.186036040932053         0.170910267602085         5.87542408653814e-05      1.67690628996295e-05      8.46537957491094e-07      1.67143300842983e-06      6.37955375253589e-05      3.50507928024663e-07      0.642911504145677         
3.4873046875              751.602469870687          707.347399087727          0.00077372066943708       0.185963783618713         0.170918496919066         6.47123451650627e-05      1.81254106030758e-05      9.06361880388647e-07      1.89495964660541e-06      6.77496096198267e-05      3.86780635659973e-07      0.642963943994671         
3.4874267578125           751.726668208828          707.407717221789          0.000773654696092132      0.185888315512818         0.170926883182143         7.12599210399761e-05      1.95885107404083e-05      9.70304560046139e-07      2.14709068307868e-06      7.19016580249325e-05      4.26460865577623e-07      0.643018507359125         
3.487548828125            751.86044441261           707.474703415361          0.000773581442710273      0.185809498796713         0.170935420259613         7.8450963841257e-05       2.11663465641033e-05      1.03864728508191e-06      2.43115587010083e-06      7.62552600031519e-05      4.6980415659885e-07       0.643075268765954         
3.4876708984375           752.004494622904          707.5489257566            0.000773500292380781      0.185727190309333         0.17094410112815          8.63437939197962e-05      2.28674540427132e-05      1.11169303061631e-06      2.75081130509856e-06      8.08132859891852e-05      5.17075826231191e-07      0.643134304448403         
3.48779296875             752.159559711756          707.630991993015          0.000773410585826675      0.185641241402462         0.170952917819062         9.50013196817557e-05      2.47009561108186e-05      1.18976861864268e-06      3.11006110242366e-06      8.55778039792019e-05      5.68549961436421e-07      0.643195692319022         
3.4879150390625           752.326427374833          707.721551478734          0.000773311619461548      0.18555149779971          0.170961861362213         0.000104491305958354      2.66765988220919e-05      1.27322713469505e-06      3.5132788939707e-06       9.05499814164645e-05      6.24508172974781e-07      0.643259511937678         
3.488037109375            752.50593421808           707.821297120218          0.000773202643481116      0.185457799459067         0.170970921727334         0.000114886646274765      2.88047895123096e-05      1.36245062906262e-06      3.96522886235181e-06      9.57299856541056e-05      6.85238099149041e-07      0.643325844474568         
3.4881591796875           752.69896782365           707.930967299638          0.000773082860009249      0.18535998043967          0.170980087762404         0.00012626563756384       3.10966370955389e-05      1.45785313407931e-06      4.47108597409864e-06      0.000101116884330553      7.5103164871804e-07       0.643394772668179         
3.48828125                752.906468776659          708.05134776535           0.000772951421322001      0.185257868773821         0.170989347128752         0.000138712255503617      3.35639946130192e-05      1.55988403050636e-06      5.03645504705794e-06      0.000106708547132407      8.22182975581394e-07      0.643466380778125         
3.4884033203125           753.12943263453           708.183273463347          0.000772807428173656      0.185151286344884         0.170998686232338         0.0001523164286707        3.62195041734864e-05      1.66903179973025e-06      5.6673882548341e-06       0.000112501550683621      8.98986183618984e-07      0.643540754533012         
3.488525390625            753.368911816753          708.327630297997          0.00077264992825294       0.185040048772164         0.171008090150878         0.000167174309286489      3.90766444139901e-05      1.78582819980649e-06      6.37040064384748e-06      0.000118491088421624      9.81732764242746e-07      0.643617981073229         
3.4886474609375           753.626017393801          708.485356790818          0.000772477914797224      0.184923965303541         0.171017542556121         0.000183388538434424      4.21497806325035e-05      1.91085290756188e-06      7.15248321767553e-06      0.000124670887570636      1.07070877686638e-06      0.643698148888798         
3.48876953125             753.901920749546          708.657445623745          0.000772290325397273      0.184802838716881         0.171027025630908         0.000201068503157878      4.54542177237847e-05      2.04473866990375e-06      8.02111312635591e-06      0.000131033135397677      1.16619178776289e-06      0.643781347752348         
3.4888916015625           754.197855093546          708.844945032153          0.000772086041023347      0.184676465231029         0.17103651998026          0.00022033058308723       4.90062560762839e-05      2.18817701225409e-06      8.98426049406971e-06      0.000137568417142098      1.26844759206955e-06      0.643867668647308         
3.489013671875            754.515116794709          709.048960032645          0.000771863885308624      0.184544634427498         0.171046004536204         0.000241298383714459      5.28232505530198e-05      2.34192455235238e-06      1.0050391415661e-05       0.000144265668004442      1.37772674947827e-06      0.643957203691308         
3.4891357421875           754.855066511386          709.270653448501          0.000771622624122506      0.184407129183497         0.1710554564555           0.000264102953866899      5.6923672710748e-05       2.50680997316279e-06      1.12284666706669e-05      0.000151112141704105      1.49426097448821e-06      0.644050046055103         
3.4892578125              755.219130087544          709.511246716486          0.000771360965471674      0.184263725617596         0.171064851010205         0.000288882984322778      6.13271763558538e-05      2.6837417080271e-06       1.25279357162517e-05      0.000158093397994961      1.6182594274439e-06       0.644146289876674         
3.4893798828125           755.608799190318          709.772020438074          0.000771077559761353      0.184114193048294         0.171074161470407         0.000315784985212384      6.60546665752143e-05      2.87371639767724e-06      1.3958725565833e-05       0.000165193311533147      1.74990496303957e-06      0.644246030171052         
3.489501953125            756.025631658027          710.054314659388          0.00077077100045455       0.183958293967094         0.171083358979158         0.000344963439121951      7.1128372295413e-05       3.07782817676592e-06      1.55312241858573e-05      0.000172394104223837      1.88935039655877e-06      0.644349362735348         
3.4896240234375           756.471251536198          710.359528842138          0.000770439825159058      0.183795784025872         0.171092412419613         0.0003765809278781        7.65719224783412e-05      3.29727885544197e-06      1.72562581174703e-05      0.000179676403028557      2.03671485748463e-06      0.644456384049299         
3.48974609375             756.94734877162           710.689121515751          0.000770082517177625      0.183626412040457         0.171101288274499         0.000410808230077819      8.24104259379848e-05      3.53338905757956e-06      1.91450640585697e-05      0.000187019324782799      2.19208030037108e-06      0.644567191170829         
3.4898681640625           757.455678546483          711.044609571936          0.000769697507545459      0.183449920009476         0.171109950478695         0.000447824387960755      8.86705548439174e-05      3.78761038719242e-06      2.12092542410052e-05      0.00019440058925876       2.35548824979668e-06      0.644681881626888         
3.489990234375            757.998060225116          711.427567199284          0.000769283177585491      0.18326604315103          0.171118360265637         0.000487816741016385      9.53806318042044e-05      4.06153868785432e-06      2.34607754482853e-05      0.000201796661119483      2.52693685157024e-06      0.644800553298405         
3.4901123046875           758.576375902298          711.839624422812          0.000768837861996791      0.183074509955176         0.171126476008963         0.00053098092586205       0.00010257072054644       4.3569284729672e-06       2.59118616301024e-05      0.000209182920929921      2.70637830562722e-06      0.644923304300113         
3.490234375               759.192568529248          712.28246525064           0.000768359852499619      0.182875042255342         0.171134253061351         0.000577520840266716      0.00011027271997843       4.6757085939958e-06       2.85749800225149e-05      0.000216533864685427      2.8937167451922e-06       0.645050232853015         
3.4903564453125           759.848639615561          712.757825402923          0.000767847402040028      0.182667355315969         0.171141643592433         0.000627648572145101      0.000118520461612973      5.01999923155944e-06      3.1462770776422e-05       0.000223823330707057      3.08880662564045e-06      0.645181437150499         
3.490478515625            760.546646487292          713.26748962762           0.000767298729569486      0.182451157939598         0.171148596429031         0.000681584292006324      0.000127349810022762      5.39213027784841e-06      3.45879799225294e-05      0.000231024752017452      3.29145166878698e-06      0.645317015215455         
3.4906005859375           761.288699110566          713.813288589496          0.00076671202538733       0.18222615258979          0.171155056900737         0.000739556111352656      0.000136798766317397      5.79466120383768e-06      3.79633855199927e-05      0.00023811143163669       3.50140440269907e-06      0.64545706474904          
3.49072265625             762.076956464531          714.397095342073          0.000766085457052597      0.181992035533923         0.171160966695147         0.000801799906217504      0.000146907574215661      6.23040248019312e-06      4.16017164178635e-05      0.000245056837604289      3.71836631294394e-06      0.645601682967682         
3.4908447265625           762.913622485493          715.020821378938          0.000765417175836299      0.181748497000583         0.171166263726892         0.000868559110500033      0.000157718828807415      6.70243865692031e-06      4.55155628952269e-05      0.000251834913899459      3.9419886119215e-06       0.645750966429154         
3.490966796875            763.800941567778          715.686412277255          0.00076470532371308       0.18149522135639          0.171170882026197         0.000940084479120451      0.000169277587556193      7.21415317048527e-06      4.97172775851491e-05      0.000258420403076888      4.17187360372373e-06      0.6459050108433           
3.4910888671875           764.741193656559          716.395842941506          0.000763948040845011      0.181231887295191         0.171174751651574         0.00101663382855206       0.000181631483921263      7.76925500043519e-06      5.42188645426188e-05      0.00026478917596854       4.40757661077733e-06      0.64606391086864          
3.4912109375              765.73668891678           717.151112477757          0.000763143473531897      0.180958168045535         0.171177798634689         0.0010984717559455        0.000194830843287159      8.37180724437743e-06      5.90318526717062e-05      0.000270918563940537      4.64860839685377e-06      0.64622775988829          
3.49127197265625          766.256033347125          717.546694667454          0.000762722741204539      0.180817285805919         0.171178983419041         0.00114147811231735       0.00020176769923665       8.6925619419706e-06       6.15593368824491e-05      0.000273885797111644      4.77093052889258e-06      0.646311576337021         
3.4913330078125           766.790424840067          717.954836706391          0.000762289148200082      0.180673654332318         0.171179913060005         0.00118594967593916       0.000208937545190878      9.02720355594704e-06      6.41706390566392e-05      0.000276783055195273      4.89442271048358e-06      0.646396670066029         
3.49139404296875          767.340190935616          718.375801624947          0.00076184243735719       0.180527228657462         0.171180574869211         0.00123192556129778       0.000216347686371073      9.3763929482357e-06       6.68671977789699e-05      0.000279607734520203      5.01901380600692e-06      0.646483052886604         
3.491455078125            767.905644538333          718.809883863203          0.000761382367076261      0.180377966999698         0.171180956135303         0.00127944344867049       0.000224005319453849      9.74080293823052e-06      6.96503164813396e-05      0.000282357457714173      5.14462928834297e-06      0.646570734890453         
3.49151611328125          768.48711770521           719.257349272673          0.000760908681728692      0.180225823611828         0.171181043322646         0.00132854362610519       0.000231918145791605      1.0121158715493e-05       7.25213850167316e-05      0.000285029882579233      5.27119395061605e-06      0.646659727673367         
3.4915771484375           769.084925725089          719.718495019897          0.000760421143350959      0.180070756305181         0.171180822918823         0.00137926470489108       0.00024009372444411       1.05181969637867e-05      7.5481642609984e-05       0.000287622919945554      5.39862960447119e-06      0.646750040957537         